#============================================================
# 双层转角石墨烯 LAMMPS 数据文件
# 转角角度: 5.0°
# 结构尺寸: 100.0 × 100.0 × 15.0 Å
# 层间距: 3.35 Å
# 总原子数: 2543
# 底层原子数: 1269
# 顶层原子数: 1274
#============================================================

2543 atoms
2 atom types

-59.949044 59.992476 xlo xhi
-59.977990 59.978785 ylo yhi
-11.675000 11.675000 zlo zhi

Masses

# 原子类型 质量(amu) 注释
1 12.0107  # 底层碳原子
2 12.0107  # 顶层碳原子

Atoms # atomic

# id atom_type charge x y z
1 1 0 -48.999717 45.510000 -1.675000
2 1 0 -48.999717 47.970000 -1.675000
3 1 0 -46.869295 49.200000 -1.675000
4 1 0 -48.999717 38.130000 -1.675000
5 1 0 -48.999717 40.590000 -1.675000
6 1 0 -46.869295 41.820000 -1.675000
7 1 0 -46.869295 44.280000 -1.675000
8 1 0 -44.738872 45.510000 -1.675000
9 1 0 -44.738872 47.970000 -1.675000
10 1 0 -42.608450 49.200000 -1.675000
11 1 0 -48.999717 30.750000 -1.675000
12 1 0 -48.999717 33.210000 -1.675000
13 1 0 -46.869295 34.440000 -1.675000
14 1 0 -46.869295 36.900000 -1.675000
15 1 0 -44.738872 38.130000 -1.675000
16 1 0 -44.738872 40.590000 -1.675000
17 1 0 -42.608450 41.820000 -1.675000
18 1 0 -42.608450 44.280000 -1.675000
19 1 0 -40.478027 45.510000 -1.675000
20 1 0 -40.478027 47.970000 -1.675000
21 1 0 -38.347605 49.200000 -1.675000
22 1 0 -48.999717 23.370000 -1.675000
23 1 0 -48.999717 25.830000 -1.675000
24 1 0 -46.869295 27.060000 -1.675000
25 1 0 -46.869295 29.520000 -1.675000
26 1 0 -44.738872 30.750000 -1.675000
27 1 0 -44.738872 33.210000 -1.675000
28 1 0 -42.608450 34.440000 -1.675000
29 1 0 -42.608450 36.900000 -1.675000
30 1 0 -40.478027 38.130000 -1.675000
31 1 0 -40.478027 40.590000 -1.675000
32 1 0 -38.347605 41.820000 -1.675000
33 1 0 -38.347605 44.280000 -1.675000
34 1 0 -36.217182 45.510000 -1.675000
35 1 0 -36.217182 47.970000 -1.675000
36 1 0 -34.086760 49.200000 -1.675000
37 1 0 -48.999717 15.990000 -1.675000
38 1 0 -48.999717 18.450000 -1.675000
39 1 0 -46.869295 19.680000 -1.675000
40 1 0 -46.869295 22.140000 -1.675000
41 1 0 -44.738872 23.370000 -1.675000
42 1 0 -44.738872 25.830000 -1.675000
43 1 0 -42.608450 27.060000 -1.675000
44 1 0 -42.608450 29.520000 -1.675000
45 1 0 -40.478027 30.750000 -1.675000
46 1 0 -40.478027 33.210000 -1.675000
47 1 0 -38.347605 34.440000 -1.675000
48 1 0 -38.347605 36.900000 -1.675000
49 1 0 -36.217182 38.130000 -1.675000
50 1 0 -36.217182 40.590000 -1.675000
51 1 0 -34.086760 41.820000 -1.675000
52 1 0 -34.086760 44.280000 -1.675000
53 1 0 -31.956337 45.510000 -1.675000
54 1 0 -31.956337 47.970000 -1.675000
55 1 0 -29.825915 49.200000 -1.675000
56 1 0 -48.999717 8.610000 -1.675000
57 1 0 -48.999717 11.070000 -1.675000
58 1 0 -46.869295 12.300000 -1.675000
59 1 0 -46.869295 14.760000 -1.675000
60 1 0 -44.738872 15.990000 -1.675000
61 1 0 -44.738872 18.450000 -1.675000
62 1 0 -42.608450 19.680000 -1.675000
63 1 0 -42.608450 22.140000 -1.675000
64 1 0 -40.478027 23.370000 -1.675000
65 1 0 -40.478027 25.830000 -1.675000
66 1 0 -38.347605 27.060000 -1.675000
67 1 0 -38.347605 29.520000 -1.675000
68 1 0 -36.217182 30.750000 -1.675000
69 1 0 -36.217182 33.210000 -1.675000
70 1 0 -34.086760 34.440000 -1.675000
71 1 0 -34.086760 36.900000 -1.675000
72 1 0 -31.956337 38.130000 -1.675000
73 1 0 -31.956337 40.590000 -1.675000
74 1 0 -29.825915 41.820000 -1.675000
75 1 0 -29.825915 44.280000 -1.675000
76 1 0 -27.695492 45.510000 -1.675000
77 1 0 -27.695492 47.970000 -1.675000
78 1 0 -25.565070 49.200000 -1.675000
79 1 0 -48.999717 1.230000 -1.675000
80 1 0 -48.999717 3.690000 -1.675000
81 1 0 -46.869295 4.920000 -1.675000
82 1 0 -46.869295 7.380000 -1.675000
83 1 0 -44.738872 8.610000 -1.675000
84 1 0 -44.738872 11.070000 -1.675000
85 1 0 -42.608450 12.300000 -1.675000
86 1 0 -42.608450 14.760000 -1.675000
87 1 0 -40.478027 15.990000 -1.675000
88 1 0 -40.478027 18.450000 -1.675000
89 1 0 -38.347605 19.680000 -1.675000
90 1 0 -38.347605 22.140000 -1.675000
91 1 0 -36.217182 23.370000 -1.675000
92 1 0 -36.217182 25.830000 -1.675000
93 1 0 -34.086760 27.060000 -1.675000
94 1 0 -34.086760 29.520000 -1.675000
95 1 0 -31.956337 30.750000 -1.675000
96 1 0 -31.956337 33.210000 -1.675000
97 1 0 -29.825915 34.440000 -1.675000
98 1 0 -29.825915 36.900000 -1.675000
99 1 0 -27.695492 38.130000 -1.675000
100 1 0 -27.695492 40.590000 -1.675000
101 1 0 -25.565070 41.820000 -1.675000
102 1 0 -25.565070 44.280000 -1.675000
103 1 0 -23.434647 45.510000 -1.675000
104 1 0 -23.434647 47.970000 -1.675000
105 1 0 -21.304225 49.200000 -1.675000
106 1 0 -48.999717 -6.150000 -1.675000
107 1 0 -48.999717 -3.690000 -1.675000
108 1 0 -46.869295 -2.460000 -1.675000
109 1 0 -46.869295 0.000000 -1.675000
110 1 0 -44.738872 1.230000 -1.675000
111 1 0 -44.738872 3.690000 -1.675000
112 1 0 -42.608450 4.920000 -1.675000
113 1 0 -42.608450 7.380000 -1.675000
114 1 0 -40.478027 8.610000 -1.675000
115 1 0 -40.478027 11.070000 -1.675000
116 1 0 -38.347605 12.300000 -1.675000
117 1 0 -38.347605 14.760000 -1.675000
118 1 0 -36.217182 15.990000 -1.675000
119 1 0 -36.217182 18.450000 -1.675000
120 1 0 -34.086760 19.680000 -1.675000
121 1 0 -34.086760 22.140000 -1.675000
122 1 0 -31.956337 23.370000 -1.675000
123 1 0 -31.956337 25.830000 -1.675000
124 1 0 -29.825915 27.060000 -1.675000
125 1 0 -29.825915 29.520000 -1.675000
126 1 0 -27.695492 30.750000 -1.675000
127 1 0 -27.695492 33.210000 -1.675000
128 1 0 -25.565070 34.440000 -1.675000
129 1 0 -25.565070 36.900000 -1.675000
130 1 0 -23.434647 38.130000 -1.675000
131 1 0 -23.434647 40.590000 -1.675000
132 1 0 -21.304225 41.820000 -1.675000
133 1 0 -21.304225 44.280000 -1.675000
134 1 0 -19.173802 45.510000 -1.675000
135 1 0 -19.173802 47.970000 -1.675000
136 1 0 -17.043380 49.200000 -1.675000
137 1 0 -48.999717 -13.530000 -1.675000
138 1 0 -48.999717 -11.070000 -1.675000
139 1 0 -46.869295 -9.840000 -1.675000
140 1 0 -46.869295 -7.380000 -1.675000
141 1 0 -44.738872 -6.150000 -1.675000
142 1 0 -44.738872 -3.690000 -1.675000
143 1 0 -42.608450 -2.460000 -1.675000
144 1 0 -42.608450 0.000000 -1.675000
145 1 0 -40.478027 1.230000 -1.675000
146 1 0 -40.478027 3.690000 -1.675000
147 1 0 -38.347605 4.920000 -1.675000
148 1 0 -38.347605 7.380000 -1.675000
149 1 0 -36.217182 8.610000 -1.675000
150 1 0 -36.217182 11.070000 -1.675000
151 1 0 -34.086760 12.300000 -1.675000
152 1 0 -34.086760 14.760000 -1.675000
153 1 0 -31.956337 15.990000 -1.675000
154 1 0 -31.956337 18.450000 -1.675000
155 1 0 -29.825915 19.680000 -1.675000
156 1 0 -29.825915 22.140000 -1.675000
157 1 0 -27.695492 23.370000 -1.675000
158 1 0 -27.695492 25.830000 -1.675000
159 1 0 -25.565070 27.060000 -1.675000
160 1 0 -25.565070 29.520000 -1.675000
161 1 0 -23.434647 30.750000 -1.675000
162 1 0 -23.434647 33.210000 -1.675000
163 1 0 -21.304225 34.440000 -1.675000
164 1 0 -21.304225 36.900000 -1.675000
165 1 0 -19.173802 38.130000 -1.675000
166 1 0 -19.173802 40.590000 -1.675000
167 1 0 -17.043380 41.820000 -1.675000
168 1 0 -17.043380 44.280000 -1.675000
169 1 0 -14.912957 45.510000 -1.675000
170 1 0 -14.912957 47.970000 -1.675000
171 1 0 -12.782535 49.200000 -1.675000
172 1 0 -48.999717 -20.910000 -1.675000
173 1 0 -48.999717 -18.450000 -1.675000
174 1 0 -46.869295 -17.220000 -1.675000
175 1 0 -46.869295 -14.760000 -1.675000
176 1 0 -44.738872 -13.530000 -1.675000
177 1 0 -44.738872 -11.070000 -1.675000
178 1 0 -42.608450 -9.840000 -1.675000
179 1 0 -42.608450 -7.380000 -1.675000
180 1 0 -40.478027 -6.150000 -1.675000
181 1 0 -40.478027 -3.690000 -1.675000
182 1 0 -38.347605 -2.460000 -1.675000
183 1 0 -38.347605 0.000000 -1.675000
184 1 0 -36.217182 1.230000 -1.675000
185 1 0 -36.217182 3.690000 -1.675000
186 1 0 -34.086760 4.920000 -1.675000
187 1 0 -34.086760 7.380000 -1.675000
188 1 0 -31.956337 8.610000 -1.675000
189 1 0 -31.956337 11.070000 -1.675000
190 1 0 -29.825915 12.300000 -1.675000
191 1 0 -29.825915 14.760000 -1.675000
192 1 0 -27.695492 15.990000 -1.675000
193 1 0 -27.695492 18.450000 -1.675000
194 1 0 -25.565070 19.680000 -1.675000
195 1 0 -25.565070 22.140000 -1.675000
196 1 0 -23.434647 23.370000 -1.675000
197 1 0 -23.434647 25.830000 -1.675000
198 1 0 -21.304225 27.060000 -1.675000
199 1 0 -21.304225 29.520000 -1.675000
200 1 0 -19.173802 30.750000 -1.675000
201 1 0 -19.173802 33.210000 -1.675000
202 1 0 -17.043380 34.440000 -1.675000
203 1 0 -17.043380 36.900000 -1.675000
204 1 0 -14.912957 38.130000 -1.675000
205 1 0 -14.912957 40.590000 -1.675000
206 1 0 -12.782535 41.820000 -1.675000
207 1 0 -12.782535 44.280000 -1.675000
208 1 0 -10.652112 45.510000 -1.675000
209 1 0 -10.652112 47.970000 -1.675000
210 1 0 -8.521690 49.200000 -1.675000
211 1 0 -48.999717 -28.290000 -1.675000
212 1 0 -48.999717 -25.830000 -1.675000
213 1 0 -46.869295 -24.600000 -1.675000
214 1 0 -46.869295 -22.140000 -1.675000
215 1 0 -44.738872 -20.910000 -1.675000
216 1 0 -44.738872 -18.450000 -1.675000
217 1 0 -42.608450 -17.220000 -1.675000
218 1 0 -42.608450 -14.760000 -1.675000
219 1 0 -40.478027 -13.530000 -1.675000
220 1 0 -40.478027 -11.070000 -1.675000
221 1 0 -38.347605 -9.840000 -1.675000
222 1 0 -38.347605 -7.380000 -1.675000
223 1 0 -36.217182 -6.150000 -1.675000
224 1 0 -36.217182 -3.690000 -1.675000
225 1 0 -34.086760 -2.460000 -1.675000
226 1 0 -34.086760 0.000000 -1.675000
227 1 0 -31.956337 1.230000 -1.675000
228 1 0 -31.956337 3.690000 -1.675000
229 1 0 -29.825915 4.920000 -1.675000
230 1 0 -29.825915 7.380000 -1.675000
231 1 0 -27.695492 8.610000 -1.675000
232 1 0 -27.695492 11.070000 -1.675000
233 1 0 -25.565070 12.300000 -1.675000
234 1 0 -25.565070 14.760000 -1.675000
235 1 0 -23.434647 15.990000 -1.675000
236 1 0 -23.434647 18.450000 -1.675000
237 1 0 -21.304225 19.680000 -1.675000
238 1 0 -21.304225 22.140000 -1.675000
239 1 0 -19.173802 23.370000 -1.675000
240 1 0 -19.173802 25.830000 -1.675000
241 1 0 -17.043380 27.060000 -1.675000
242 1 0 -17.043380 29.520000 -1.675000
243 1 0 -14.912957 30.750000 -1.675000
244 1 0 -14.912957 33.210000 -1.675000
245 1 0 -12.782535 34.440000 -1.675000
246 1 0 -12.782535 36.900000 -1.675000
247 1 0 -10.652112 38.130000 -1.675000
248 1 0 -10.652112 40.590000 -1.675000
249 1 0 -8.521690 41.820000 -1.675000
250 1 0 -8.521690 44.280000 -1.675000
251 1 0 -6.391267 45.510000 -1.675000
252 1 0 -6.391267 47.970000 -1.675000
253 1 0 -4.260845 49.200000 -1.675000
254 1 0 -48.999717 -35.670000 -1.675000
255 1 0 -48.999717 -33.210000 -1.675000
256 1 0 -46.869295 -31.980000 -1.675000
257 1 0 -46.869295 -29.520000 -1.675000
258 1 0 -44.738872 -28.290000 -1.675000
259 1 0 -44.738872 -25.830000 -1.675000
260 1 0 -42.608450 -24.600000 -1.675000
261 1 0 -42.608450 -22.140000 -1.675000
262 1 0 -40.478027 -20.910000 -1.675000
263 1 0 -40.478027 -18.450000 -1.675000
264 1 0 -38.347605 -17.220000 -1.675000
265 1 0 -38.347605 -14.760000 -1.675000
266 1 0 -36.217182 -13.530000 -1.675000
267 1 0 -36.217182 -11.070000 -1.675000
268 1 0 -34.086760 -9.840000 -1.675000
269 1 0 -34.086760 -7.380000 -1.675000
270 1 0 -31.956337 -6.150000 -1.675000
271 1 0 -31.956337 -3.690000 -1.675000
272 1 0 -29.825915 -2.460000 -1.675000
273 1 0 -29.825915 0.000000 -1.675000
274 1 0 -27.695492 1.230000 -1.675000
275 1 0 -27.695492 3.690000 -1.675000
276 1 0 -25.565070 4.920000 -1.675000
277 1 0 -25.565070 7.380000 -1.675000
278 1 0 -23.434647 8.610000 -1.675000
279 1 0 -23.434647 11.070000 -1.675000
280 1 0 -21.304225 12.300000 -1.675000
281 1 0 -21.304225 14.760000 -1.675000
282 1 0 -19.173802 15.990000 -1.675000
283 1 0 -19.173802 18.450000 -1.675000
284 1 0 -17.043380 19.680000 -1.675000
285 1 0 -17.043380 22.140000 -1.675000
286 1 0 -14.912957 23.370000 -1.675000
287 1 0 -14.912957 25.830000 -1.675000
288 1 0 -12.782535 27.060000 -1.675000
289 1 0 -12.782535 29.520000 -1.675000
290 1 0 -10.652112 30.750000 -1.675000
291 1 0 -10.652112 33.210000 -1.675000
292 1 0 -8.521690 34.440000 -1.675000
293 1 0 -8.521690 36.900000 -1.675000
294 1 0 -6.391267 38.130000 -1.675000
295 1 0 -6.391267 40.590000 -1.675000
296 1 0 -4.260845 41.820000 -1.675000
297 1 0 -4.260845 44.280000 -1.675000
298 1 0 -2.130422 45.510000 -1.675000
299 1 0 -2.130422 47.970000 -1.675000
300 1 0 -0.000000 49.200000 -1.675000
301 1 0 -48.999717 -43.050000 -1.675000
302 1 0 -48.999717 -40.590000 -1.675000
303 1 0 -46.869295 -39.360000 -1.675000
304 1 0 -46.869295 -36.900000 -1.675000
305 1 0 -44.738872 -35.670000 -1.675000
306 1 0 -44.738872 -33.210000 -1.675000
307 1 0 -42.608450 -31.980000 -1.675000
308 1 0 -42.608450 -29.520000 -1.675000
309 1 0 -40.478027 -28.290000 -1.675000
310 1 0 -40.478027 -25.830000 -1.675000
311 1 0 -38.347605 -24.600000 -1.675000
312 1 0 -38.347605 -22.140000 -1.675000
313 1 0 -36.217182 -20.910000 -1.675000
314 1 0 -36.217182 -18.450000 -1.675000
315 1 0 -34.086760 -17.220000 -1.675000
316 1 0 -34.086760 -14.760000 -1.675000
317 1 0 -31.956337 -13.530000 -1.675000
318 1 0 -31.956337 -11.070000 -1.675000
319 1 0 -29.825915 -9.840000 -1.675000
320 1 0 -29.825915 -7.380000 -1.675000
321 1 0 -27.695492 -6.150000 -1.675000
322 1 0 -27.695492 -3.690000 -1.675000
323 1 0 -25.565070 -2.460000 -1.675000
324 1 0 -25.565070 0.000000 -1.675000
325 1 0 -23.434647 1.230000 -1.675000
326 1 0 -23.434647 3.690000 -1.675000
327 1 0 -21.304225 4.920000 -1.675000
328 1 0 -21.304225 7.380000 -1.675000
329 1 0 -19.173802 8.610000 -1.675000
330 1 0 -19.173802 11.070000 -1.675000
331 1 0 -17.043380 12.300000 -1.675000
332 1 0 -17.043380 14.760000 -1.675000
333 1 0 -14.912957 15.990000 -1.675000
334 1 0 -14.912957 18.450000 -1.675000
335 1 0 -12.782535 19.680000 -1.675000
336 1 0 -12.782535 22.140000 -1.675000
337 1 0 -10.652112 23.370000 -1.675000
338 1 0 -10.652112 25.830000 -1.675000
339 1 0 -8.521690 27.060000 -1.675000
340 1 0 -8.521690 29.520000 -1.675000
341 1 0 -6.391267 30.750000 -1.675000
342 1 0 -6.391267 33.210000 -1.675000
343 1 0 -4.260845 34.440000 -1.675000
344 1 0 -4.260845 36.900000 -1.675000
345 1 0 -2.130422 38.130000 -1.675000
346 1 0 -2.130422 40.590000 -1.675000
347 1 0 0.000000 41.820000 -1.675000
348 1 0 0.000000 44.280000 -1.675000
349 1 0 2.130422 45.510000 -1.675000
350 1 0 2.130422 47.970000 -1.675000
351 1 0 4.260845 49.200000 -1.675000
352 1 0 -48.999717 -47.970000 -1.675000
353 1 0 -46.869295 -46.740000 -1.675000
354 1 0 -46.869295 -44.280000 -1.675000
355 1 0 -44.738872 -43.050000 -1.675000
356 1 0 -44.738872 -40.590000 -1.675000
357 1 0 -42.608450 -39.360000 -1.675000
358 1 0 -42.608450 -36.900000 -1.675000
359 1 0 -40.478027 -35.670000 -1.675000
360 1 0 -40.478027 -33.210000 -1.675000
361 1 0 -38.347605 -31.980000 -1.675000
362 1 0 -38.347605 -29.520000 -1.675000
363 1 0 -36.217182 -28.290000 -1.675000
364 1 0 -36.217182 -25.830000 -1.675000
365 1 0 -34.086760 -24.600000 -1.675000
366 1 0 -34.086760 -22.140000 -1.675000
367 1 0 -31.956337 -20.910000 -1.675000
368 1 0 -31.956337 -18.450000 -1.675000
369 1 0 -29.825915 -17.220000 -1.675000
370 1 0 -29.825915 -14.760000 -1.675000
371 1 0 -27.695492 -13.530000 -1.675000
372 1 0 -27.695492 -11.070000 -1.675000
373 1 0 -25.565070 -9.840000 -1.675000
374 1 0 -25.565070 -7.380000 -1.675000
375 1 0 -23.434647 -6.150000 -1.675000
376 1 0 -23.434647 -3.690000 -1.675000
377 1 0 -21.304225 -2.460000 -1.675000
378 1 0 -21.304225 0.000000 -1.675000
379 1 0 -19.173802 1.230000 -1.675000
380 1 0 -19.173802 3.690000 -1.675000
381 1 0 -17.043380 4.920000 -1.675000
382 1 0 -17.043380 7.380000 -1.675000
383 1 0 -14.912957 8.610000 -1.675000
384 1 0 -14.912957 11.070000 -1.675000
385 1 0 -12.782535 12.300000 -1.675000
386 1 0 -12.782535 14.760000 -1.675000
387 1 0 -10.652112 15.990000 -1.675000
388 1 0 -10.652112 18.450000 -1.675000
389 1 0 -8.521690 19.680000 -1.675000
390 1 0 -8.521690 22.140000 -1.675000
391 1 0 -6.391267 23.370000 -1.675000
392 1 0 -6.391267 25.830000 -1.675000
393 1 0 -4.260845 27.060000 -1.675000
394 1 0 -4.260845 29.520000 -1.675000
395 1 0 -2.130422 30.750000 -1.675000
396 1 0 -2.130422 33.210000 -1.675000
397 1 0 -0.000000 34.440000 -1.675000
398 1 0 0.000000 36.900000 -1.675000
399 1 0 2.130422 38.130000 -1.675000
400 1 0 2.130422 40.590000 -1.675000
401 1 0 4.260845 41.820000 -1.675000
402 1 0 4.260845 44.280000 -1.675000
403 1 0 6.391267 45.510000 -1.675000
404 1 0 6.391267 47.970000 -1.675000
405 1 0 8.521690 49.200000 -1.675000
406 1 0 -44.738872 -47.970000 -1.675000
407 1 0 -42.608450 -46.740000 -1.675000
408 1 0 -42.608450 -44.280000 -1.675000
409 1 0 -40.478027 -43.050000 -1.675000
410 1 0 -40.478027 -40.590000 -1.675000
411 1 0 -38.347605 -39.360000 -1.675000
412 1 0 -38.347605 -36.900000 -1.675000
413 1 0 -36.217182 -35.670000 -1.675000
414 1 0 -36.217182 -33.210000 -1.675000
415 1 0 -34.086760 -31.980000 -1.675000
416 1 0 -34.086760 -29.520000 -1.675000
417 1 0 -31.956337 -28.290000 -1.675000
418 1 0 -31.956337 -25.830000 -1.675000
419 1 0 -29.825915 -24.600000 -1.675000
420 1 0 -29.825915 -22.140000 -1.675000
421 1 0 -27.695492 -20.910000 -1.675000
422 1 0 -27.695492 -18.450000 -1.675000
423 1 0 -25.565070 -17.220000 -1.675000
424 1 0 -25.565070 -14.760000 -1.675000
425 1 0 -23.434647 -13.530000 -1.675000
426 1 0 -23.434647 -11.070000 -1.675000
427 1 0 -21.304225 -9.840000 -1.675000
428 1 0 -21.304225 -7.380000 -1.675000
429 1 0 -19.173802 -6.150000 -1.675000
430 1 0 -19.173802 -3.690000 -1.675000
431 1 0 -17.043380 -2.460000 -1.675000
432 1 0 -17.043380 0.000000 -1.675000
433 1 0 -14.912957 1.230000 -1.675000
434 1 0 -14.912957 3.690000 -1.675000
435 1 0 -12.782535 4.920000 -1.675000
436 1 0 -12.782535 7.380000 -1.675000
437 1 0 -10.652112 8.610000 -1.675000
438 1 0 -10.652112 11.070000 -1.675000
439 1 0 -8.521690 12.300000 -1.675000
440 1 0 -8.521690 14.760000 -1.675000
441 1 0 -6.391267 15.990000 -1.675000
442 1 0 -6.391267 18.450000 -1.675000
443 1 0 -4.260845 19.680000 -1.675000
444 1 0 -4.260845 22.140000 -1.675000
445 1 0 -2.130422 23.370000 -1.675000
446 1 0 -2.130422 25.830000 -1.675000
447 1 0 -0.000000 27.060000 -1.675000
448 1 0 0.000000 29.520000 -1.675000
449 1 0 2.130422 30.750000 -1.675000
450 1 0 2.130422 33.210000 -1.675000
451 1 0 4.260845 34.440000 -1.675000
452 1 0 4.260845 36.900000 -1.675000
453 1 0 6.391267 38.130000 -1.675000
454 1 0 6.391267 40.590000 -1.675000
455 1 0 8.521690 41.820000 -1.675000
456 1 0 8.521690 44.280000 -1.675000
457 1 0 10.652112 45.510000 -1.675000
458 1 0 10.652112 47.970000 -1.675000
459 1 0 12.782535 49.200000 -1.675000
460 1 0 -40.478027 -47.970000 -1.675000
461 1 0 -38.347605 -46.740000 -1.675000
462 1 0 -38.347605 -44.280000 -1.675000
463 1 0 -36.217182 -43.050000 -1.675000
464 1 0 -36.217182 -40.590000 -1.675000
465 1 0 -34.086760 -39.360000 -1.675000
466 1 0 -34.086760 -36.900000 -1.675000
467 1 0 -31.956337 -35.670000 -1.675000
468 1 0 -31.956337 -33.210000 -1.675000
469 1 0 -29.825915 -31.980000 -1.675000
470 1 0 -29.825915 -29.520000 -1.675000
471 1 0 -27.695492 -28.290000 -1.675000
472 1 0 -27.695492 -25.830000 -1.675000
473 1 0 -25.565070 -24.600000 -1.675000
474 1 0 -25.565070 -22.140000 -1.675000
475 1 0 -23.434647 -20.910000 -1.675000
476 1 0 -23.434647 -18.450000 -1.675000
477 1 0 -21.304225 -17.220000 -1.675000
478 1 0 -21.304225 -14.760000 -1.675000
479 1 0 -19.173802 -13.530000 -1.675000
480 1 0 -19.173802 -11.070000 -1.675000
481 1 0 -17.043380 -9.840000 -1.675000
482 1 0 -17.043380 -7.380000 -1.675000
483 1 0 -14.912957 -6.150000 -1.675000
484 1 0 -14.912957 -3.690000 -1.675000
485 1 0 -12.782535 -2.460000 -1.675000
486 1 0 -12.782535 0.000000 -1.675000
487 1 0 -10.652112 1.230000 -1.675000
488 1 0 -10.652112 3.690000 -1.675000
489 1 0 -8.521690 4.920000 -1.675000
490 1 0 -8.521690 7.380000 -1.675000
491 1 0 -6.391267 8.610000 -1.675000
492 1 0 -6.391267 11.070000 -1.675000
493 1 0 -4.260845 12.300000 -1.675000
494 1 0 -4.260845 14.760000 -1.675000
495 1 0 -2.130422 15.990000 -1.675000
496 1 0 -2.130422 18.450000 -1.675000
497 1 0 0.000000 19.680000 -1.675000
498 1 0 0.000000 22.140000 -1.675000
499 1 0 2.130422 23.370000 -1.675000
500 1 0 2.130422 25.830000 -1.675000
501 1 0 4.260845 27.060000 -1.675000
502 1 0 4.260845 29.520000 -1.675000
503 1 0 6.391267 30.750000 -1.675000
504 1 0 6.391267 33.210000 -1.675000
505 1 0 8.521690 34.440000 -1.675000
506 1 0 8.521690 36.900000 -1.675000
507 1 0 10.652112 38.130000 -1.675000
508 1 0 10.652112 40.590000 -1.675000
509 1 0 12.782535 41.820000 -1.675000
510 1 0 12.782535 44.280000 -1.675000
511 1 0 14.912957 45.510000 -1.675000
512 1 0 14.912957 47.970000 -1.675000
513 1 0 17.043380 49.200000 -1.675000
514 1 0 -36.217182 -47.970000 -1.675000
515 1 0 -34.086760 -46.740000 -1.675000
516 1 0 -34.086760 -44.280000 -1.675000
517 1 0 -31.956337 -43.050000 -1.675000
518 1 0 -31.956337 -40.590000 -1.675000
519 1 0 -29.825915 -39.360000 -1.675000
520 1 0 -29.825915 -36.900000 -1.675000
521 1 0 -27.695492 -35.670000 -1.675000
522 1 0 -27.695492 -33.210000 -1.675000
523 1 0 -25.565070 -31.980000 -1.675000
524 1 0 -25.565070 -29.520000 -1.675000
525 1 0 -23.434647 -28.290000 -1.675000
526 1 0 -23.434647 -25.830000 -1.675000
527 1 0 -21.304225 -24.600000 -1.675000
528 1 0 -21.304225 -22.140000 -1.675000
529 1 0 -19.173802 -20.910000 -1.675000
530 1 0 -19.173802 -18.450000 -1.675000
531 1 0 -17.043380 -17.220000 -1.675000
532 1 0 -17.043380 -14.760000 -1.675000
533 1 0 -14.912957 -13.530000 -1.675000
534 1 0 -14.912957 -11.070000 -1.675000
535 1 0 -12.782535 -9.840000 -1.675000
536 1 0 -12.782535 -7.380000 -1.675000
537 1 0 -10.652112 -6.150000 -1.675000
538 1 0 -10.652112 -3.690000 -1.675000
539 1 0 -8.521690 -2.460000 -1.675000
540 1 0 -8.521690 0.000000 -1.675000
541 1 0 -6.391267 1.230000 -1.675000
542 1 0 -6.391267 3.690000 -1.675000
543 1 0 -4.260845 4.920000 -1.675000
544 1 0 -4.260845 7.380000 -1.675000
545 1 0 -2.130422 8.610000 -1.675000
546 1 0 -2.130422 11.070000 -1.675000
547 1 0 -0.000000 12.300000 -1.675000
548 1 0 0.000000 14.760000 -1.675000
549 1 0 2.130422 15.990000 -1.675000
550 1 0 2.130422 18.450000 -1.675000
551 1 0 4.260845 19.680000 -1.675000
552 1 0 4.260845 22.140000 -1.675000
553 1 0 6.391267 23.370000 -1.675000
554 1 0 6.391267 25.830000 -1.675000
555 1 0 8.521690 27.060000 -1.675000
556 1 0 8.521690 29.520000 -1.675000
557 1 0 10.652112 30.750000 -1.675000
558 1 0 10.652112 33.210000 -1.675000
559 1 0 12.782535 34.440000 -1.675000
560 1 0 12.782535 36.900000 -1.675000
561 1 0 14.912957 38.130000 -1.675000
562 1 0 14.912957 40.590000 -1.675000
563 1 0 17.043380 41.820000 -1.675000
564 1 0 17.043380 44.280000 -1.675000
565 1 0 19.173802 45.510000 -1.675000
566 1 0 19.173802 47.970000 -1.675000
567 1 0 21.304225 49.200000 -1.675000
568 1 0 -31.956337 -47.970000 -1.675000
569 1 0 -29.825915 -46.740000 -1.675000
570 1 0 -29.825915 -44.280000 -1.675000
571 1 0 -27.695492 -43.050000 -1.675000
572 1 0 -27.695492 -40.590000 -1.675000
573 1 0 -25.565070 -39.360000 -1.675000
574 1 0 -25.565070 -36.900000 -1.675000
575 1 0 -23.434647 -35.670000 -1.675000
576 1 0 -23.434647 -33.210000 -1.675000
577 1 0 -21.304225 -31.980000 -1.675000
578 1 0 -21.304225 -29.520000 -1.675000
579 1 0 -19.173802 -28.290000 -1.675000
580 1 0 -19.173802 -25.830000 -1.675000
581 1 0 -17.043380 -24.600000 -1.675000
582 1 0 -17.043380 -22.140000 -1.675000
583 1 0 -14.912957 -20.910000 -1.675000
584 1 0 -14.912957 -18.450000 -1.675000
585 1 0 -12.782535 -17.220000 -1.675000
586 1 0 -12.782535 -14.760000 -1.675000
587 1 0 -10.652112 -13.530000 -1.675000
588 1 0 -10.652112 -11.070000 -1.675000
589 1 0 -8.521690 -9.840000 -1.675000
590 1 0 -8.521690 -7.380000 -1.675000
591 1 0 -6.391267 -6.150000 -1.675000
592 1 0 -6.391267 -3.690000 -1.675000
593 1 0 -4.260845 -2.460000 -1.675000
594 1 0 -4.260845 0.000000 -1.675000
595 1 0 -2.130422 1.230000 -1.675000
596 1 0 -2.130422 3.690000 -1.675000
597 1 0 0.000000 4.920000 -1.675000
598 1 0 0.000000 7.380000 -1.675000
599 1 0 2.130422 8.610000 -1.675000
600 1 0 2.130422 11.070000 -1.675000
601 1 0 4.260845 12.300000 -1.675000
602 1 0 4.260845 14.760000 -1.675000
603 1 0 6.391267 15.990000 -1.675000
604 1 0 6.391267 18.450000 -1.675000
605 1 0 8.521690 19.680000 -1.675000
606 1 0 8.521690 22.140000 -1.675000
607 1 0 10.652112 23.370000 -1.675000
608 1 0 10.652112 25.830000 -1.675000
609 1 0 12.782535 27.060000 -1.675000
610 1 0 12.782535 29.520000 -1.675000
611 1 0 14.912957 30.750000 -1.675000
612 1 0 14.912957 33.210000 -1.675000
613 1 0 17.043380 34.440000 -1.675000
614 1 0 17.043380 36.900000 -1.675000
615 1 0 19.173802 38.130000 -1.675000
616 1 0 19.173802 40.590000 -1.675000
617 1 0 21.304225 41.820000 -1.675000
618 1 0 21.304225 44.280000 -1.675000
619 1 0 23.434647 45.510000 -1.675000
620 1 0 23.434647 47.970000 -1.675000
621 1 0 25.565070 49.200000 -1.675000
622 1 0 -27.695492 -47.970000 -1.675000
623 1 0 -25.565070 -46.740000 -1.675000
624 1 0 -25.565070 -44.280000 -1.675000
625 1 0 -23.434647 -43.050000 -1.675000
626 1 0 -23.434647 -40.590000 -1.675000
627 1 0 -21.304225 -39.360000 -1.675000
628 1 0 -21.304225 -36.900000 -1.675000
629 1 0 -19.173802 -35.670000 -1.675000
630 1 0 -19.173802 -33.210000 -1.675000
631 1 0 -17.043380 -31.980000 -1.675000
632 1 0 -17.043380 -29.520000 -1.675000
633 1 0 -14.912957 -28.290000 -1.675000
634 1 0 -14.912957 -25.830000 -1.675000
635 1 0 -12.782535 -24.600000 -1.675000
636 1 0 -12.782535 -22.140000 -1.675000
637 1 0 -10.652112 -20.910000 -1.675000
638 1 0 -10.652112 -18.450000 -1.675000
639 1 0 -8.521690 -17.220000 -1.675000
640 1 0 -8.521690 -14.760000 -1.675000
641 1 0 -6.391267 -13.530000 -1.675000
642 1 0 -6.391267 -11.070000 -1.675000
643 1 0 -4.260845 -9.840000 -1.675000
644 1 0 -4.260845 -7.380000 -1.675000
645 1 0 -2.130422 -6.150000 -1.675000
646 1 0 -2.130422 -3.690000 -1.675000
647 1 0 0.000000 -2.460000 -1.675000
648 1 0 0.000000 0.000000 -1.675000
649 1 0 2.130422 1.230000 -1.675000
650 1 0 2.130422 3.690000 -1.675000
651 1 0 4.260845 4.920000 -1.675000
652 1 0 4.260845 7.380000 -1.675000
653 1 0 6.391267 8.610000 -1.675000
654 1 0 6.391267 11.070000 -1.675000
655 1 0 8.521690 12.300000 -1.675000
656 1 0 8.521690 14.760000 -1.675000
657 1 0 10.652112 15.990000 -1.675000
658 1 0 10.652112 18.450000 -1.675000
659 1 0 12.782535 19.680000 -1.675000
660 1 0 12.782535 22.140000 -1.675000
661 1 0 14.912957 23.370000 -1.675000
662 1 0 14.912957 25.830000 -1.675000
663 1 0 17.043380 27.060000 -1.675000
664 1 0 17.043380 29.520000 -1.675000
665 1 0 19.173802 30.750000 -1.675000
666 1 0 19.173802 33.210000 -1.675000
667 1 0 21.304225 34.440000 -1.675000
668 1 0 21.304225 36.900000 -1.675000
669 1 0 23.434647 38.130000 -1.675000
670 1 0 23.434647 40.590000 -1.675000
671 1 0 25.565070 41.820000 -1.675000
672 1 0 25.565070 44.280000 -1.675000
673 1 0 27.695492 45.510000 -1.675000
674 1 0 27.695492 47.970000 -1.675000
675 1 0 29.825915 49.200000 -1.675000
676 1 0 -23.434647 -47.970000 -1.675000
677 1 0 -21.304225 -46.740000 -1.675000
678 1 0 -21.304225 -44.280000 -1.675000
679 1 0 -19.173802 -43.050000 -1.675000
680 1 0 -19.173802 -40.590000 -1.675000
681 1 0 -17.043380 -39.360000 -1.675000
682 1 0 -17.043380 -36.900000 -1.675000
683 1 0 -14.912957 -35.670000 -1.675000
684 1 0 -14.912957 -33.210000 -1.675000
685 1 0 -12.782535 -31.980000 -1.675000
686 1 0 -12.782535 -29.520000 -1.675000
687 1 0 -10.652112 -28.290000 -1.675000
688 1 0 -10.652112 -25.830000 -1.675000
689 1 0 -8.521690 -24.600000 -1.675000
690 1 0 -8.521690 -22.140000 -1.675000
691 1 0 -6.391267 -20.910000 -1.675000
692 1 0 -6.391267 -18.450000 -1.675000
693 1 0 -4.260845 -17.220000 -1.675000
694 1 0 -4.260845 -14.760000 -1.675000
695 1 0 -2.130422 -13.530000 -1.675000
696 1 0 -2.130422 -11.070000 -1.675000
697 1 0 0.000000 -9.840000 -1.675000
698 1 0 0.000000 -7.380000 -1.675000
699 1 0 2.130422 -6.150000 -1.675000
700 1 0 2.130422 -3.690000 -1.675000
701 1 0 4.260845 -2.460000 -1.675000
702 1 0 4.260845 0.000000 -1.675000
703 1 0 6.391267 1.230000 -1.675000
704 1 0 6.391267 3.690000 -1.675000
705 1 0 8.521690 4.920000 -1.675000
706 1 0 8.521690 7.380000 -1.675000
707 1 0 10.652112 8.610000 -1.675000
708 1 0 10.652112 11.070000 -1.675000
709 1 0 12.782535 12.300000 -1.675000
710 1 0 12.782535 14.760000 -1.675000
711 1 0 14.912957 15.990000 -1.675000
712 1 0 14.912957 18.450000 -1.675000
713 1 0 17.043380 19.680000 -1.675000
714 1 0 17.043380 22.140000 -1.675000
715 1 0 19.173802 23.370000 -1.675000
716 1 0 19.173802 25.830000 -1.675000
717 1 0 21.304225 27.060000 -1.675000
718 1 0 21.304225 29.520000 -1.675000
719 1 0 23.434647 30.750000 -1.675000
720 1 0 23.434647 33.210000 -1.675000
721 1 0 25.565070 34.440000 -1.675000
722 1 0 25.565070 36.900000 -1.675000
723 1 0 27.695492 38.130000 -1.675000
724 1 0 27.695492 40.590000 -1.675000
725 1 0 29.825915 41.820000 -1.675000
726 1 0 29.825915 44.280000 -1.675000
727 1 0 31.956337 45.510000 -1.675000
728 1 0 31.956337 47.970000 -1.675000
729 1 0 34.086760 49.200000 -1.675000
730 1 0 -19.173802 -47.970000 -1.675000
731 1 0 -17.043380 -46.740000 -1.675000
732 1 0 -17.043380 -44.280000 -1.675000
733 1 0 -14.912957 -43.050000 -1.675000
734 1 0 -14.912957 -40.590000 -1.675000
735 1 0 -12.782535 -39.360000 -1.675000
736 1 0 -12.782535 -36.900000 -1.675000
737 1 0 -10.652112 -35.670000 -1.675000
738 1 0 -10.652112 -33.210000 -1.675000
739 1 0 -8.521690 -31.980000 -1.675000
740 1 0 -8.521690 -29.520000 -1.675000
741 1 0 -6.391267 -28.290000 -1.675000
742 1 0 -6.391267 -25.830000 -1.675000
743 1 0 -4.260845 -24.600000 -1.675000
744 1 0 -4.260845 -22.140000 -1.675000
745 1 0 -2.130422 -20.910000 -1.675000
746 1 0 -2.130422 -18.450000 -1.675000
747 1 0 -0.000000 -17.220000 -1.675000
748 1 0 0.000000 -14.760000 -1.675000
749 1 0 2.130422 -13.530000 -1.675000
750 1 0 2.130422 -11.070000 -1.675000
751 1 0 4.260845 -9.840000 -1.675000
752 1 0 4.260845 -7.380000 -1.675000
753 1 0 6.391267 -6.150000 -1.675000
754 1 0 6.391267 -3.690000 -1.675000
755 1 0 8.521690 -2.460000 -1.675000
756 1 0 8.521690 0.000000 -1.675000
757 1 0 10.652112 1.230000 -1.675000
758 1 0 10.652112 3.690000 -1.675000
759 1 0 12.782535 4.920000 -1.675000
760 1 0 12.782535 7.380000 -1.675000
761 1 0 14.912957 8.610000 -1.675000
762 1 0 14.912957 11.070000 -1.675000
763 1 0 17.043380 12.300000 -1.675000
764 1 0 17.043380 14.760000 -1.675000
765 1 0 19.173802 15.990000 -1.675000